<?xml version="1.0" encoding="ISO-8859-1"?>
<VTKFile type="UnstructuredGrid" version="0.1">
 <UnstructuredGrid>
  <Piece Name="Cube" NumberOfPoints="8" NumberOfCells="12">
   <Points>
    <DataArray type="Float32" NumberOfComponents="3" format="ascii">
 -5.000000000e-01 -5.000000000e-01 -5.000000000e-01
 -5.000000000e-01 -5.000000000e-01  5.000000000e-01
 -5.000000000e-01  5.000000000e-01 -5.000000000e-01
 -5.000000000e-01  5.000000000e-01  5.000000000e-01
  5.000000000e-01 -5.000000000e-01 -5.000000000e-01
  5.000000000e-01 -5.000000000e-01  5.000000000e-01
  5.000000000e-01  5.000000000e-01 -5.000000000e-01
  5.000000000e-01  5.000000000e-01  5.000000000e-01
</DataArray>
   </Points>
   <Cells>
    <DataArray type="Int32" Name="connectivity" format="ascii">
 0 4 5
 0 5 1
 4 6 7
 4 7 5
 2 0 1
 2 1 3
 6 2 3
 6 3 7
 1 5 7
 1 7 3
 2 6 4
 2 4 0
</DataArray>
    <DataArray type="Int32" Name="offsets" format="ascii">
 3 6 9 12 15 18 21 24 27 30 33 36</DataArray>
    <DataArray type="UInt32" Name="types" format="ascii">
 5 5 5 5 5 5 5 5 5 5 5 5</DataArray>
   </Cells>
   <CellData>
    <DataArray Name="IntersectComponents" NumberOfComponents="1" type="UInt16" format="ascii" TRIXtype="COMPONENT_TAG">
 0
 0
 2
 2
 3
 3
 4
 4
 5
 5
 6
 6
</DataArray>
    <DataArray Name="GMPtags" NumberOfComponents="1" type="Int32" format="ascii" TRIXtype="COMPONENT_TAG">
 0
 1
 2
 3
 3
 3
 3
 4
 4
 4
 4
 4
</DataArray>
   </CellData>
   <PointData>
    <DataArray Name="Sensitivity_0" NumberOfComponents="3" type="Float64" format="ascii" TRIXtype="SHAPE_LINEARIZATION">
   1.00000000000000e+00   0.00000000000000e+00   0.00000000000000e+00
  -1.00000000000000e+00   0.00000000000000e+00   0.00000000000000e+00
   0.00000000000000e+00   1.00000000000000e+00   0.00000000000000e+00
   0.00000000000000e+00  -1.00000000000000e+00   0.00000000000000e+00
   0.00000000000000e+00   0.00000000000000e+00   1.00000000000000e+00
   0.00000000000000e+00   0.00000000000000e+00  -1.00000000000000e+00
   1.00000000000000e+00   1.00000000000000e+00   1.00000000000000e+00
   1.00000000000000e+00   0.00000000000000e+00   1.00000000000000e+00
</DataArray>
    <DataArray Name="Sensitivity_1" NumberOfComponents="3" type="Float64" format="ascii" TRIXtype="SHAPE_LINEARIZATION">
   1.00000000000000e+00   0.00000000000000e+00   0.00000000000000e+00
  -1.00000000000000e+00   0.00000000000000e+00   0.00000000000000e+00
   0.00000000000000e+00   1.00000000000000e+00   0.00000000000000e+00
   0.00000000000000e+00  -1.00000000000000e+00   0.00000000000000e+00
   0.00000000000000e+00   0.00000000000000e+00   1.00000000000000e+00
   0.00000000000000e+00   0.00000000000000e+00  -1.00000000000000e+00
   1.00000000000000e+00   1.00000000000000e+00   1.00000000000000e+00
   1.00000000000000e+00   0.00000000000000e+00   1.00000000000000e+00
</DataArray>
   </PointData>
  </Piece>
 </UnstructuredGrid>
</VTKFile>
